20
Atoms. Timestep: 0
1 1.12579e-08 2.02559e-08 1.42524e-08
1 1.094e-08 2.0351e-08 1.37532e-08
1 1.06093e-08 2.08093e-08 1.36298e-08
2 1.02329e-08 2.06154e-08 1.38708e-08
3 9.9807e-09 2.01773e-08 1.43359e-08
1 9.90293e-09 1.93784e-08 1.43204e-08
1 9.75859e-09 2.00558e-08 1.46675e-08
1 9.92161e-09 2.07367e-08 1.43633e-08
2 9.60101e-09 2.05323e-08 1.48212e-08
3 9.5146e-09 2.10736e-08 1.42384e-08
1 9.88079e-09 2.09729e-08 1.38977e-08
1 9.63685e-09 2.10999e-08 1.45368e-08
1 9.24626e-09 2.13127e-08 1.46208e-08
2 9.58693e-09 2.17385e-08 1.47513e-08
3 9.54441e-09 2.25182e-08 1.4969e-08
1 9.46635e-09 2.21348e-08 1.56699e-08
1 9.33187e-09 2.14316e-08 1.53606e-08
1 9.73877e-09 2.14188e-08 1.53489e-08
2 9.58312e-09 2.06738e-08 1.54521e-08
3 9.91561e-09 2.03269e-08 1.57685e-08
